% Model:              me_rodliteral_losses.mph
% Version:            COMSOL 5.2.1.262
% Date:               Oct 3 2017, 22:13
% Dimension:          3
% Nodes:              65331
% Expressions:        1
% Description:        Energy (Joules)
% Length unit:        mm
% x             y              z              real(f32energy(bn,es.normE,ang))-enm
0.0000          0.0000         0.0000         0.0000
0.050000        0.0000         0.0000         0.46038
0.10000         0.0000         0.0000         0.93659
0.15000         0.0000         0.0000         1.4087
0.20000         0.0000         0.0000         1.8730
0.25000         0.0000         0.0000         2.3294
0.30000         0.0000         0.0000         2.7761
0.35000         0.0000         0.0000         3.2103
0.40000         0.0000         0.0000         3.6351
0.45000         0.0000         0.0000         4.0469
0.50000         0.0000         0.0000         4.4303
0.55000         0.0000         0.0000         4.8185
0.60000         0.0000         0.0000         5.1755
0.65000         0.0000         0.0000         5.5210
0.70000         0.0000         0.0000         5.8483
0.75000         0.0000         0.0000         6.1589
0.80000         0.0000         0.0000         6.4658
0.85000         0.0000         0.0000         6.7225
0.90000         0.0000         0.0000         6.9829
0.95000         0.0000         0.0000         7.2415
1.0000          0.0000         0.0000         7.4585
1.0500          0.0000         0.0000         7.6766
1.1000          0.0000         0.0000         7.8834
1.1500          0.0000         0.0000         8.0629
1.2000          0.0000         0.0000         8.2370
1.2500          0.0000         0.0000         8.3886
1.3000          0.0000         0.0000         8.5402
1.3500          0.0000         0.0000         8.6754
1.4000          0.0000         0.0000         8.7834
1.4500          0.0000         0.0000         8.9726
1.5000          0.0000         0.0000         9.0549
1.5500          0.0000         0.0000         9.1486
1.6000          0.0000         0.0000         9.2527
1.6500          0.0000         0.0000         9.3459
1.7000          0.0000         0.0000         9.4392
1.7500          0.0000         0.0000         9.4904
1.8000          0.0000         0.0000         9.5795
1.8500          0.0000         0.0000         9.6386
1.9000          0.0000         0.0000         9.6977
1.9500          0.0000         0.0000         9.7585
2.0000          0.0000         0.0000         9.8136
2.0500          0.0000         0.0000         9.8680
2.1000          0.0000         0.0000         9.9097
2.1500          0.0000         0.0000         9.9379
2.2000          0.0000         0.0000         9.9713
2.2500          0.0000         0.0000         9.9879
2.3000          0.0000         0.0000         10.040
2.3500          0.0000         0.0000         10.056
2.4000          0.0000         0.0000         10.080
2.4500          0.0000         0.0000         10.090
2.5000          0.0000         0.0000         10.136
2.5500          0.0000         0.0000         10.145
2.6000          0.0000         0.0000         10.174
2.6500          0.0000         0.0000         10.214
2.7000          0.0000         0.0000         10.224
2.7500          0.0000         0.0000         10.213
2.8000          0.0000         0.0000         10.203
2.8500          0.0000         0.0000         10.191
2.9000          0.0000         0.0000         10.257
2.9500          0.0000         0.0000         10.264
3.0000          0.0000         0.0000         10.281
0.0000          0.050000       0.0000         0.49339
0.050000        0.050000       0.0000         0.72675
0.10000         0.050000       0.0000         1.1357
0.15000         0.050000       0.0000         1.5773
0.20000         0.050000       0.0000         2.0277
0.25000         0.050000       0.0000         2.4727
0.30000         0.050000       0.0000         2.9135
0.35000         0.050000       0.0000         3.3454
0.40000         0.050000       0.0000         3.7663
0.45000         0.050000       0.0000         4.1730
0.50000         0.050000       0.0000         4.5664
0.55000         0.050000       0.0000         4.9422
0.60000         0.050000       0.0000         5.3022
0.65000         0.050000       0.0000         5.6427
0.70000         0.050000       0.0000         5.9667
0.75000         0.050000       0.0000         6.2748
0.80000         0.050000       0.0000         6.5681
0.85000         0.050000       0.0000         6.8463
0.90000         0.050000       0.0000         7.1091
0.95000         0.050000       0.0000         7.3415
1.0000          0.050000       0.0000         7.5698
1.0500          0.050000       0.0000         7.7839
1.1000          0.050000       0.0000         7.9591
1.1500          0.050000       0.0000         8.1864
1.2000          0.050000       0.0000         8.3455
1.2500          0.050000       0.0000         8.5001
1.3000          0.050000       0.0000         8.6504
1.3500          0.050000       0.0000         8.7985
1.4000          0.050000       0.0000         8.9380
1.4500          0.050000       0.0000         9.0329
1.5000          0.050000       0.0000         9.1589
1.5500          0.050000       0.0000         9.2728
1.6000          0.050000       0.0000         9.3642
1.6500          0.050000       0.0000         9.4556
1.7000          0.050000       0.0000         9.5470
1.7500          0.050000       0.0000         9.5862
1.8000          0.050000       0.0000         9.6907
1.8500          0.050000       0.0000         9.7357
1.9000          0.050000       0.0000         9.7945
1.9500          0.050000       0.0000         9.8532
2.0000          0.050000       0.0000         9.9101
2.0500          0.050000       0.0000         9.9608
2.1000          0.050000       0.0000         10.001
2.1500          0.050000       0.0000         10.039
2.2000          0.050000       0.0000         10.075
2.2500          0.050000       0.0000         10.119
2.3000          0.050000       0.0000         10.121
2.3500          0.050000       0.0000         10.176
2.4000          0.050000       0.0000         10.178
2.4500          0.050000       0.0000         10.199
2.5000          0.050000       0.0000         10.210
2.5500          0.050000       0.0000         10.246
2.6000          0.050000       0.0000         10.256
2.6500          0.050000       0.0000         10.279
2.7000          0.050000       0.0000         10.281
2.7500          0.050000       0.0000         10.270
2.8000          0.050000       0.0000         10.260
2.8500          0.050000       0.0000         10.350
2.9000          0.050000       0.0000         10.305
2.9500          0.050000       0.0000         10.313
3.0000          0.050000       0.0000         10.332
0.0000          0.10000        0.0000         1.0488
0.050000        0.10000        0.0000         1.2254
0.10000         0.10000        0.0000         1.5771
0.15000         0.10000        0.0000         1.9821
0.20000         0.10000        0.0000         2.4080
0.25000         0.10000        0.0000         2.8400
0.30000         0.10000        0.0000         3.2692
0.35000         0.10000        0.0000         3.6878
0.40000         0.10000        0.0000         4.1031
0.45000         0.10000        0.0000         4.5051
0.50000         0.10000        0.0000         4.8943
0.55000         0.10000        0.0000         5.2619
0.60000         0.10000        0.0000         5.6206
0.65000         0.10000        0.0000         5.9626
0.70000         0.10000        0.0000         6.2835
0.75000         0.10000        0.0000         6.5872
0.80000         0.10000        0.0000         6.8706
0.85000         0.10000        0.0000         7.1688
0.90000         0.10000        0.0000         7.4049
0.95000         0.10000        0.0000         7.6403
1.0000          0.10000        0.0000         7.8691
1.0500          0.10000        0.0000         8.0898
1.1000          0.10000        0.0000         8.2918
1.1500          0.10000        0.0000         8.4692
1.2000          0.10000        0.0000         8.6160
1.2500          0.10000        0.0000         8.8017
1.3000          0.10000        0.0000         8.9468
1.3500          0.10000        0.0000         9.0892
1.4000          0.10000        0.0000         9.2163
1.4500          0.10000        0.0000         9.3331
1.5000          0.10000        0.0000         9.4448
1.5500          0.10000        0.0000         9.5359
1.6000          0.10000        0.0000         9.6442
1.6500          0.10000        0.0000         9.7499
1.7000          0.10000        0.0000         9.8110
1.7500          0.10000        0.0000         9.9068
1.8000          0.10000        0.0000         9.9612
1.8500          0.10000        0.0000         10.033
1.9000          0.10000        0.0000         10.090
1.9500          0.10000        0.0000         10.147
2.0000          0.10000        0.0000         10.148
2.0500          0.10000        0.0000         10.194
2.1000          0.10000        0.0000         10.254
2.1500          0.10000        0.0000         10.325
2.2000          0.10000        0.0000         10.358
2.2500          0.10000        0.0000         10.391
2.3000          0.10000        0.0000         10.424
2.3500          0.10000        0.0000         10.438
2.4000          0.10000        0.0000         10.459
2.4500          0.10000        0.0000         10.480
2.5000          0.10000        0.0000         10.501
2.5500          0.10000        0.0000         10.531
2.6000          0.10000        0.0000         10.457
2.6500          0.10000        0.0000         10.480
2.7000          0.10000        0.0000         10.481
2.7500          0.10000        0.0000         10.580
2.8000          0.10000        0.0000         10.577
2.8500          0.10000        0.0000         10.575
2.9000          0.10000        0.0000         10.572
2.9500          0.10000        0.0000         10.569
3.0000          0.10000        0.0000         10.525
0.0000          0.15000        0.0000         1.6362
0.050000        0.15000        0.0000         1.7949
0.10000         0.15000        0.0000         2.1217
0.15000         0.15000        0.0000         2.5044
0.20000         0.15000        0.0000         2.9092
0.25000         0.15000        0.0000         3.3290
0.30000         0.15000        0.0000         3.7470
0.35000         0.15000        0.0000         4.1589
0.40000         0.15000        0.0000         4.5608
0.45000         0.15000        0.0000         4.9592
0.50000         0.15000        0.0000         5.3323
0.55000         0.15000        0.0000         5.6951
0.60000         0.15000        0.0000         6.0498
0.65000         0.15000        0.0000         6.3631
0.70000         0.15000        0.0000         6.7111
0.75000         0.15000        0.0000         7.0212
0.80000         0.15000        0.0000         7.3091
0.85000         0.15000        0.0000         7.5761
0.90000         0.15000        0.0000         7.8301
0.95000         0.15000        0.0000         8.0643
1.0000          0.15000        0.0000         8.2989
1.0500          0.15000        0.0000         8.4930
1.1000          0.15000        0.0000         8.6906
1.1500          0.15000        0.0000         8.8745
1.2000          0.15000        0.0000         9.0485
1.2500          0.15000        0.0000         9.2075
1.3000          0.15000        0.0000         9.3469
1.3500          0.15000        0.0000         9.4890
1.4000          0.15000        0.0000         9.6146
1.4500          0.15000        0.0000         9.7371
1.5000          0.15000        0.0000         9.8258
1.5500          0.15000        0.0000         9.9259
1.6000          0.15000        0.0000         10.024
1.6500          0.15000        0.0000         10.116
1.7000          0.15000        0.0000         10.205
1.7500          0.15000        0.0000         10.291
1.8000          0.15000        0.0000         10.345
1.8500          0.15000        0.0000         10.408
1.9000          0.15000        0.0000         10.445
1.9500          0.15000        0.0000         10.516
2.0000          0.15000        0.0000         10.585
2.0500          0.15000        0.0000         10.622
2.1000          0.15000        0.0000         10.656
2.1500          0.15000        0.0000         10.681
2.2000          0.15000        0.0000         10.718
2.2500          0.15000        0.0000         10.769
2.3000          0.15000        0.0000         10.810
2.3500          0.15000        0.0000         10.835
2.4000          0.15000        0.0000         10.849
2.4500          0.15000        0.0000         10.872
2.5000          0.15000        0.0000         10.887
2.5500          0.15000        0.0000         10.953
2.6000          0.15000        0.0000         10.990
2.6500          0.15000        0.0000         10.962
2.7000          0.15000        0.0000         10.951
2.7500          0.15000        0.0000         10.952
2.8000          0.15000        0.0000         10.952
2.8500          0.15000        0.0000         10.953
2.9000          0.15000        0.0000         10.953
2.9500          0.15000        0.0000         10.954
3.0000          0.15000        0.0000         10.953
0.0000          0.20000        0.0000         2.2482
0.050000        0.20000        0.0000         2.3981
0.10000         0.20000        0.0000         2.7146
0.15000         0.20000        0.0000         3.0859
0.20000         0.20000        0.0000         3.4818
0.25000         0.20000        0.0000         3.8876
0.30000         0.20000        0.0000         4.2844
0.35000         0.20000        0.0000         4.6998
0.40000         0.20000        0.0000         5.1011
0.45000         0.20000        0.0000         5.4914
0.50000         0.20000        0.0000         5.8539
0.55000         0.20000        0.0000         6.2307
0.60000         0.20000        0.0000         6.5775
0.65000         0.20000        0.0000         6.9128
0.70000         0.20000        0.0000         7.2313
0.75000         0.20000        0.0000         7.5229
0.80000         0.20000        0.0000         7.8089
0.85000         0.20000        0.0000         8.0753
0.90000         0.20000        0.0000         8.3210
0.95000         0.20000        0.0000         8.5688
1.0000          0.20000        0.0000         8.7725
1.0500          0.20000        0.0000         8.9858
1.1000          0.20000        0.0000         9.1789
1.1500          0.20000        0.0000         9.3532
1.2000          0.20000        0.0000         9.5209
1.2500          0.20000        0.0000         9.6750
1.3000          0.20000        0.0000         9.8186
1.3500          0.20000        0.0000         9.9542
1.4000          0.20000        0.0000         10.075
1.4500          0.20000        0.0000         10.190
1.5000          0.20000        0.0000         10.305
1.5500          0.20000        0.0000         10.406
1.6000          0.20000        0.0000         10.499
1.6500          0.20000        0.0000         10.567
1.7000          0.20000        0.0000         10.636
1.7500          0.20000        0.0000         10.713
1.8000          0.20000        0.0000         10.789
1.8500          0.20000        0.0000         10.852
1.9000          0.20000        0.0000         10.917
1.9500          0.20000        0.0000         10.987
2.0000          0.20000        0.0000         11.033
2.0500          0.20000        0.0000         11.060
2.1000          0.20000        0.0000         11.095
2.1500          0.20000        0.0000         11.155
2.2000          0.20000        0.0000         11.182
2.2500          0.20000        0.0000         11.209
2.3000          0.20000        0.0000         11.239
2.3500          0.20000        0.0000         11.263
2.4000          0.20000        0.0000         11.287
2.4500          0.20000        0.0000         11.289
2.5000          0.20000        0.0000         11.297
2.5500          0.20000        0.0000         11.296
2.6000          0.20000        0.0000         11.301
2.6500          0.20000        0.0000         11.284
2.7000          0.20000        0.0000         11.406
2.7500          0.20000        0.0000         11.418
2.8000          0.20000        0.0000         11.430
2.8500          0.20000        0.0000         11.430
2.9000          0.20000        0.0000         11.430
2.9500          0.20000        0.0000         11.423
3.0000          0.20000        0.0000         11.416
0.0000          0.25000        0.0000         2.8852
0.050000        0.25000        0.0000         3.0278
0.10000         0.25000        0.0000         3.3469
0.15000         0.25000        0.0000         3.7050
0.20000         0.25000        0.0000         4.0996
0.25000         0.25000        0.0000         4.5020
0.30000         0.25000        0.0000         4.9054
0.35000         0.25000        0.0000         5.3069
0.40000         0.25000        0.0000         5.6980
0.45000         0.25000        0.0000         6.0774
0.50000         0.25000        0.0000         6.4638
0.55000         0.25000        0.0000         6.8212
0.60000         0.25000        0.0000         7.1566
0.65000         0.25000        0.0000         7.4949
0.70000         0.25000        0.0000         7.7968
0.75000         0.25000        0.0000         8.0849
0.80000         0.25000        0.0000         8.3617
0.85000         0.25000        0.0000         8.6244
0.90000         0.25000        0.0000         8.8739
0.95000         0.25000        0.0000         9.0869
1.0000          0.25000        0.0000         9.2964
1.0500          0.25000        0.0000         9.5069
1.1000          0.25000        0.0000         9.6953
1.1500          0.25000        0.0000         9.8711
1.2000          0.25000        0.0000         10.039
1.2500          0.25000        0.0000         10.189
1.3000          0.25000        0.0000         10.321
1.3500          0.25000        0.0000         10.451
1.4000          0.25000        0.0000         10.571
1.4500          0.25000        0.0000         10.692
1.5000          0.25000        0.0000         10.794
1.5500          0.25000        0.0000         10.902
1.6000          0.25000        0.0000         10.983
1.6500          0.25000        0.0000         11.061
1.7000          0.25000        0.0000         11.132
1.7500          0.25000        0.0000         11.205
1.8000          0.25000        0.0000         11.280
1.8500          0.25000        0.0000         11.342
1.9000          0.25000        0.0000         11.391
1.9500          0.25000        0.0000         11.440
2.0000          0.25000        0.0000         11.488
2.0500          0.25000        0.0000         11.518
2.1000          0.25000        0.0000         11.582
2.1500          0.25000        0.0000         11.618
2.2000          0.25000        0.0000         11.650
2.2500          0.25000        0.0000         11.668
2.3000          0.25000        0.0000         11.688
2.3500          0.25000        0.0000         11.711
2.4000          0.25000        0.0000         11.735
2.4500          0.25000        0.0000         11.775
2.5000          0.25000        0.0000         11.795
2.5500          0.25000        0.0000         11.820
2.6000          0.25000        0.0000         11.823
2.6500          0.25000        0.0000         11.829
2.7000          0.25000        0.0000         11.809
2.7500          0.25000        0.0000         11.792
2.8000          0.25000        0.0000         11.880
2.8500          0.25000        0.0000         11.892
2.9000          0.25000        0.0000         11.904
2.9500          0.25000        0.0000         11.908
3.0000          0.25000        0.0000         11.899
0.0000          0.30000        0.0000         3.5381
0.050000        0.30000        0.0000         3.6868
0.10000         0.30000        0.0000         3.9995
0.15000         0.30000        0.0000         4.3611
0.20000         0.30000        0.0000         4.7495
0.25000         0.30000        0.0000         5.1512
0.30000         0.30000        0.0000         5.5591
0.35000         0.30000        0.0000         5.9578
0.40000         0.30000        0.0000         6.3510
0.45000         0.30000        0.0000         6.7276
0.50000         0.30000        0.0000         7.0936
0.55000         0.30000        0.0000         7.4476
0.60000         0.30000        0.0000         7.7807
0.65000         0.30000        0.0000         8.1127
0.70000         0.30000        0.0000         8.4286
0.75000         0.30000        0.0000         8.6669
0.80000         0.30000        0.0000         8.9449
0.85000         0.30000        0.0000         9.2344
0.90000         0.30000        0.0000         9.4767
0.95000         0.30000        0.0000         9.7041
1.0000          0.30000        0.0000         9.9054
1.0500          0.30000        0.0000         10.101
1.1000          0.30000        0.0000         10.284
1.1500          0.30000        0.0000         10.446
1.2000          0.30000        0.0000         10.612
1.2500          0.30000        0.0000         10.768
1.3000          0.30000        0.0000         10.901
1.3500          0.30000        0.0000         11.029
1.4000          0.30000        0.0000         11.153
1.4500          0.30000        0.0000         11.267
1.5000          0.30000        0.0000         11.369
1.5500          0.30000        0.0000         11.450
1.6000          0.30000        0.0000         11.541
1.6500          0.30000        0.0000         11.612
1.7000          0.30000        0.0000         11.683
1.7500          0.30000        0.0000         11.749
1.8000          0.30000        0.0000         11.805
1.8500          0.30000        0.0000         11.843
1.9000          0.30000        0.0000         11.942
1.9500          0.30000        0.0000         11.999
2.0000          0.30000        0.0000         12.022
2.0500          0.30000        0.0000         12.070
2.1000          0.30000        0.0000         12.099
2.1500          0.30000        0.0000         12.131
2.2000          0.30000        0.0000         12.168
2.2500          0.30000        0.0000         12.186
2.3000          0.30000        0.0000         12.189
2.3500          0.30000        0.0000         12.218
2.4000          0.30000        0.0000         12.253
2.4500          0.30000        0.0000         12.285
2.5000          0.30000        0.0000         12.306
2.5500          0.30000        0.0000         12.331
2.6000          0.30000        0.0000         12.368
2.6500          0.30000        0.0000         12.360
2.7000          0.30000        0.0000         12.361
2.7500          0.30000        0.0000         12.344
2.8000          0.30000        0.0000         12.327
2.8500          0.30000        0.0000         12.354
2.9000          0.30000        0.0000         12.365
2.9500          0.30000        0.0000         12.373
3.0000          0.30000        0.0000         12.361
0.0000          0.35000        0.0000         4.2164
0.050000        0.35000        0.0000         4.3639
0.10000         0.35000        0.0000         4.6794
0.15000         0.35000        0.0000         5.0526
0.20000         0.35000        0.0000         5.4417
0.25000         0.35000        0.0000         5.8435
0.30000         0.35000        0.0000         6.2446
0.35000         0.35000        0.0000         6.6343
0.40000         0.35000        0.0000         7.0222
0.45000         0.35000        0.0000         7.4100
0.50000         0.35000        0.0000         7.7430
0.55000         0.35000        0.0000         8.1318
0.60000         0.35000        0.0000         8.4742
0.65000         0.35000        0.0000         8.7952
0.70000         0.35000        0.0000         9.0780
0.75000         0.35000        0.0000         9.3705
0.80000         0.35000        0.0000         9.6226
0.85000         0.35000        0.0000         9.8744
0.90000         0.35000        0.0000         10.105
0.95000         0.35000        0.0000         10.330
1.0000          0.35000        0.0000         10.537
1.0500          0.35000        0.0000         10.726
1.1000          0.35000        0.0000         10.906
1.1500          0.35000        0.0000         11.067
1.2000          0.35000        0.0000         11.219
1.2500          0.35000        0.0000         11.343
1.3000          0.35000        0.0000         11.487
1.3500          0.35000        0.0000         11.615
1.4000          0.35000        0.0000         11.729
1.4500          0.35000        0.0000         11.839
1.5000          0.35000        0.0000         11.948
1.5500          0.35000        0.0000         12.050
1.6000          0.35000        0.0000         12.128
1.6500          0.35000        0.0000         12.191
1.7000          0.35000        0.0000         12.254
1.7500          0.35000        0.0000         12.320
1.8000          0.35000        0.0000         12.386
1.8500          0.35000        0.0000         12.452
1.9000          0.35000        0.0000         12.479
1.9500          0.35000        0.0000         12.535
2.0000          0.35000        0.0000         12.592
2.0500          0.35000        0.0000         12.642
2.1000          0.35000        0.0000         12.666
2.1500          0.35000        0.0000         12.688
2.2000          0.35000        0.0000         12.710
2.2500          0.35000        0.0000         12.742
2.3000          0.35000        0.0000         12.769
2.3500          0.35000        0.0000         12.791
2.4000          0.35000        0.0000         12.804
2.4500          0.35000        0.0000         12.824
2.5000          0.35000        0.0000         12.820
2.5500          0.35000        0.0000         12.848
2.6000          0.35000        0.0000         12.871
2.6500          0.35000        0.0000         12.898
2.7000          0.35000        0.0000         12.906
2.7500          0.35000        0.0000         12.902
2.8000          0.35000        0.0000         12.886
2.8500          0.35000        0.0000         12.869
2.9000          0.35000        0.0000         12.852
2.9500          0.35000        0.0000         12.928
3.0000          0.35000        0.0000         12.924
0.0000          0.40000        0.0000         4.9149
0.050000        0.40000        0.0000         5.0658
0.10000         0.40000        0.0000         5.3894
0.15000         0.40000        0.0000         5.7706
0.20000         0.40000        0.0000         6.1645
0.25000         0.40000        0.0000         6.5747
0.30000         0.40000        0.0000         6.9799
0.35000         0.40000        0.0000         7.3846
0.40000         0.40000        0.0000         7.7794
0.45000         0.40000        0.0000         8.1506
0.50000         0.40000        0.0000         8.5242
0.55000         0.40000        0.0000         8.8548
0.60000         0.40000        0.0000         9.1946
0.65000         0.40000        0.0000         9.5066
0.70000         0.40000        0.0000         9.7914
0.75000         0.40000        0.0000         10.073
0.80000         0.40000        0.0000         10.341
0.85000         0.40000        0.0000         10.589
0.90000         0.40000        0.0000         10.796
0.95000         0.40000        0.0000         10.969
1.0000          0.40000        0.0000         11.192
1.0500          0.40000        0.0000         11.402
1.1000          0.40000        0.0000         11.565
1.1500          0.40000        0.0000         11.719
1.2000          0.40000        0.0000         11.868
1.2500          0.40000        0.0000         12.003
1.3000          0.40000        0.0000         12.110
1.3500          0.40000        0.0000         12.241
1.4000          0.40000        0.0000         12.354
1.4500          0.40000        0.0000         12.463
1.5000          0.40000        0.0000         12.578
1.5500          0.40000        0.0000         12.669
1.6000          0.40000        0.0000         12.740
1.6500          0.40000        0.0000         12.813
1.7000          0.40000        0.0000         12.876
1.7500          0.40000        0.0000         12.943
1.8000          0.40000        0.0000         13.010
1.8500          0.40000        0.0000         13.052
1.9000          0.40000        0.0000         13.103
1.9500          0.40000        0.0000         13.155
2.0000          0.40000        0.0000         13.167
2.0500          0.40000        0.0000         13.218
2.1000          0.40000        0.0000         13.237
2.1500          0.40000        0.0000         13.288
2.2000          0.40000        0.0000         13.313
2.2500          0.40000        0.0000         13.338
2.3000          0.40000        0.0000         13.371
2.3500          0.40000        0.0000         13.385
2.4000          0.40000        0.0000         13.396
2.4500          0.40000        0.0000         13.411
2.5000          0.40000        0.0000         13.426
2.5500          0.40000        0.0000         13.436
2.6000          0.40000        0.0000         13.422
2.6500          0.40000        0.0000         13.409
2.7000          0.40000        0.0000         13.448
2.7500          0.40000        0.0000         13.465
2.8000          0.40000        0.0000         13.449
2.8500          0.40000        0.0000         13.432
2.9000          0.40000        0.0000         13.414
2.9500          0.40000        0.0000         13.403